    2    2    1    1
  0.2266519E+02  0.4002224E-09  0.4002224E-09  0.4002224E-09  0.5000000E-15
  1.000000000000000E-004
  CAR 
 unknown system                          
      8     16     30
 
  0.0000000E+00  0.0000000E+00  0.0000000E+00  0.4629630E-02
    1       -9.103096   1.000000
    2        3.705906   0.981583
    3        3.705906   0.981583
    4        3.705918   0.981575
    5        3.883576   0.054292
    6        6.395429   0.000000
    7        6.395429   0.000000
    8        6.395438   0.000000
    9       10.241754   0.000000
   10       13.137886   0.000000
   11       13.137886   0.000000
   12       14.570538   0.000000
   13       14.570538   0.000000
   14       14.570538   0.000000
   15       17.611504   0.000000
   16       28.071555   0.000000
   17       28.071555   0.000000
   18       28.071558   0.000000
   19       28.765494   0.000000
   20       28.765495   0.000000
   21       28.765507   0.000000
   22       29.287231   0.000000
   23       29.287232   0.000000
   24       29.979134   0.000000
   25       29.979229   0.000000
   26       29.979229   0.000000
   27       38.196800   0.000000
   28       38.836770   0.000000
   29       38.836771   0.000000
   30       38.836772   0.000000
 
  0.1666667E+00 -0.6272057E-17  0.6842723E-17  0.3703704E-01
    1       -8.767909   1.000000
    2        0.515824   1.000000
    3        3.175231   1.000000
    4        3.175241   1.000000
    5        4.805721   0.000000
    6        7.090582   0.000000
    7        7.090590   0.000000
    8        8.016104   0.000000
    9       11.642357   0.000000
   10       12.082779   0.000000
   11       12.082780   0.000000
   12       13.780555   0.000000
   13       16.888795   0.000000
   14       16.888795   0.000000
   15       19.832181   0.000000
   16       23.909383   0.000000
   17       23.909385   0.000000
   18       24.193774   0.000000
   19       28.901656   0.000000
   20       28.901704   0.000000
   21       29.365914   0.000000
   22       29.365940   0.000000
   23       30.264062   0.000000
   24       31.519238   0.000000
   25       34.485960   0.000000
   26       34.711057   0.000000
   27       34.711071   0.000000
   28       36.804823   0.000000
   29       36.804833   0.000000
   30       37.849363   0.000000
 
  0.3333333E+00  0.7648067E-17 -0.6506734E-17  0.3703704E-01
    1       -7.838855   1.000000
    2       -2.422702   1.000000
    3        2.522868   1.000000
    4        2.522878   1.000000
    5        4.252690   0.000000
    6        7.618763   0.000000
    7        7.618770   0.000000
    8       10.881350   0.000000
    9       11.669840   0.000000
   10       12.708389   0.000000
   11       12.708392   0.000000
   12       16.246240   0.000000
   13       19.237823   0.000000
   14       19.237824   0.000000
   15       20.375880   0.000000
   16       20.819137   0.000000
   17       20.819140   0.000000
   18       24.033465   0.000000
   19       28.749627   0.000000
   20       29.219878   0.000000
   21       29.219923   0.000000
   22       29.988182   0.000000
   23       29.988201   0.000000
   24       30.984858   0.000000
   25       31.159860   0.000000
   26       31.159871   0.000000
   27       32.934194   0.000000
   28       35.683133   0.000000
   29       35.683149   0.000000
   30       36.267538   0.000000
 
  0.5000000E+00  0.3735234E-17 -0.2023235E-17  0.1851852E-01
    1       -7.021525   1.000000
    2       -3.934899   1.000000
    3        2.283080   1.000000
    4        2.283090   1.000000
    5        4.025806   0.000242
    6        7.583583   0.000000
    7        7.583588   0.000000
    8       10.938266   0.000000
    9       14.371184   0.000000
   10       14.952714   0.000000
   11       14.978646   0.000000
   12       14.978659   0.000000
   13       15.978180   0.000000
   14       15.978185   0.000000
   15       22.502163   0.000000
   16       23.660711   0.000000
   17       25.197871   0.000000
   18       25.197880   0.000000
   19       25.320158   0.000000
   20       25.320164   0.000000
   21       28.585299   0.000000
   22       29.776051   0.000000
   23       30.076578   0.000000
   24       30.076636   0.000000
   25       30.687061   0.000000
   26       30.687086   0.000000
   27       31.484711   0.000000
   28       34.893495   0.000000
   29       34.893594   0.000000
   30       35.067027   0.000000
 
  0.1666667E+00  0.1666667E+00  0.4197279E-17  0.2777778E-01
    1       -8.652721   1.000000
    2        0.515702   1.000000
    3        2.398646   1.000000
    4        2.398654   1.000000
    5        5.415009   0.000000
    6        6.604563   0.000000
    7        8.257140   0.000000
    8        8.257145   0.000000
    9       10.655484   0.000000
   10       12.228598   0.000000
   11       13.594970   0.000000
   12       15.494144   0.000000
   13       15.494144   0.000000
   14       16.285465   0.000000
   15       21.150608   0.000000
   16       23.481256   0.000000
   17       23.481257   0.000000
   18       24.624323   0.000000
   19       25.174265   0.000000
   20       28.494222   0.000000
   21       29.786028   0.000000
   22       29.786084   0.000000
   23       31.163807   0.000000
   24       34.572070   0.000000
   25       34.572091   0.000000
   26       34.818742   0.000000
   27       34.818742   0.000000
   28       35.144040   0.000000
   29       35.210303   0.000000
   30       36.037919   0.000000
 
  0.3333333E+00  0.1666667E+00 -0.2389591E-17  0.1111111E+00
    1       -7.898916   1.000000
    2       -1.745813   1.000000
    3        1.392740   1.000000
    4        1.780373   1.000000
    5        5.612651   0.000000
    6        6.971019   0.000000
    7        8.766573   0.000000
    8        9.121761   0.000000
    9       12.284644   0.000000
   10       13.525932   0.000000
   11       13.960889   0.000000
   12       15.826824   0.000000
   13       18.130007   0.000000
   14       19.341926   0.000000
   15       19.623657   0.000000
   16       19.917424   0.000000
   17       23.837215   0.000000
   18       24.708436   0.000000
   19       24.887688   0.000000
   20       26.176655   0.000000
   21       28.881236   0.000000
   22       30.405787   0.000000
   23       30.711639   0.000000
   24       31.969249   0.000000
   25       31.986129   0.000000
   26       33.122028   0.000000
   27       34.618314   0.000000
   28       34.689916   0.000000
   29       35.396433   0.000000
   30       35.650843   0.000000
 
  0.5000000E+00  0.1666667E+00 -0.5365402E-17  0.1111111E+00
    1       -6.845580   1.000000
    2       -3.735776   1.000000
    3        0.554189   1.000000
    4        1.713975   1.000000
    5        5.462410   0.000000
    6        7.633155   0.000000
    7        8.811535   0.000000
    8       10.242038   0.000000
    9       13.030745   0.000000
   10       14.824049   0.000000
   11       14.957912   0.000000
   12       15.639158   0.000000
   13       16.524775   0.000000
   14       19.953592   0.000000
   15       21.516950   0.000000
   16       22.404818   0.000000
   17       23.561034   0.000000
   18       24.390539   0.000000
   19       25.314593   0.000000
   20       26.302278   0.000000
   21       26.784523   0.000000
   22       29.118147   0.000000
   23       29.202012   0.000000
   24       30.220852   0.000000
   25       30.361310   0.000000
   26       31.261489   0.000000
   27       32.131867   0.000000
   28       32.717861   0.000000
   29       34.571045   0.000000
   30       35.896957   0.000000
 
 -0.3333333E+00  0.1666667E+00  0.3164567E-17  0.1111111E+00
    1       -7.177657   1.000000
    2       -3.197739   1.000000
    3        0.346123   1.000000
    4        2.206179   1.000000
    5        5.600779   0.000000
    6        7.892085   0.000000
    7        8.288289   0.000000
    8       10.584811   0.000000
    9       12.092381   0.000000
   10       12.934896   0.000000
   11       14.779128   0.000000
   12       16.533663   0.000000
   13       18.217158   0.000000
   14       19.898060   0.000000
   15       19.958962   0.000000
   16       21.500571   0.000000
   17       24.061148   0.000000
   18       25.349778   0.000000
   19       25.995858   0.000000
   20       26.252580   0.000000
   21       27.372007   0.000000
   22       27.420767   0.000000
   23       30.147054   0.000000
   24       30.510847   0.000000
   25       31.020882   0.000000
   26       31.205623   0.000000
   27       31.244463   0.000000
   28       34.842083   0.000000
   29       35.494095   0.000000
   30       36.071103   0.000000
 
 -0.1666667E+00  0.1666667E+00 -0.1254411E-16  0.5555556E-01
    1       -8.223666   1.000000
    2       -1.037268   1.000000
    3        1.127707   1.000000
    4        3.001959   1.000000
    5        5.787470   0.000000
    6        7.406760   0.000000
    7        7.623767   0.000000
    8        8.976333   0.000000
    9       11.081236   0.000000
   10       13.150708   0.000000
   11       13.197850   0.000000
   12       15.498920   0.000000
   13       16.810926   0.000000
   14       19.243094   0.000000
   15       20.069492   0.000000
   16       22.347644   0.000000
   17       23.820280   0.000000
   18       24.378116   0.000000
   19       24.419044   0.000000
   20       26.280339   0.000000
   21       30.010428   0.000000
   22       30.501532   0.000000
   23       31.509902   0.000000
   24       32.584815   0.000000
   25       32.963444   0.000000
   26       33.574295   0.000000
   27       34.487117   0.000000
   28       35.430158   0.000000
   29       35.952837   0.000000
   30       36.292279   0.000000
 
  0.3333333E+00  0.3333333E+00  0.8394558E-17  0.2777778E-01
    1       -7.327614   1.000000
    2       -2.526065   1.000000
    3        1.071277   1.000000
    4        1.071286   1.000000
    5        4.492415   0.000000
    6        5.803632   0.000000
    7       11.155833   0.000000
    8       11.155836   0.000000
    9       12.292200   0.000000
   10       14.968762   0.000000
   11       15.684045   0.000000
   12       18.222897   0.000000
   13       18.222897   0.000000
   14       18.697762   0.000000
   15       19.151794   0.000000
   16       19.151794   0.000000
   17       20.487522   0.000000
   18       21.691140   0.000000
   19       27.281197   0.000000
   20       28.069238   0.000000
   21       28.435622   0.000000
   22       28.435623   0.000000
   23       29.292018   0.000000
   24       30.166355   0.000000
   25       30.995073   0.000000
   26       30.995130   0.000000
   27       32.407356   0.000000
   28       36.159284   0.000000
   29       37.077842   0.000000
   30       37.077898   0.000000
 
  0.5000000E+00  0.3333333E+00  0.2300318E-16  0.1111111E+00
    1       -6.258678   1.000000
    2       -4.025137   1.000000
    3       -0.073821   1.000000
    4        0.913291   1.000000
    5        4.881767   0.000000
    6        6.510002   0.000000
    7       10.864187   0.000000
    8       11.445017   0.000000
    9       14.200324   0.000000
   10       15.326777   0.000000
   11       15.785097   0.000000
   12       17.200388   0.000000
   13       17.678532   0.000000
   14       19.717762   0.000000
   15       20.611919   0.000000
   16       21.312103   0.000000
   17       21.911644   0.000000
   18       22.904753   0.000000
   19       23.510336   0.000000
   20       25.975135   0.000000
   21       26.114649   0.000000
   22       26.446275   0.000000
   23       28.388454   0.000000
   24       29.883336   0.000000
   25       31.614939   0.000000
   26       31.647706   0.000000
   27       33.736126   0.000000
   28       33.759562   0.000000
   29       35.300269   0.000000
   30       36.136575   0.000000
 
 -0.3333333E+00  0.3333333E+00  0.1529613E-16  0.5555556E-01
    1       -6.126461   1.000000
    2       -4.169408   1.000000
    3       -0.795557   1.000000
    4        1.367137   1.000000
    5        5.276353   0.000000
    6        9.608673   0.000000
    7       10.242891   0.000000
    8       10.279275   0.000000
    9       10.992055   0.000000
   10       12.653355   0.000000
   11       17.360053   0.000000
   12       17.634573   0.000000
   13       19.312518   0.000000
   14       20.566524   0.000000
   15       20.946614   0.000000
   16       21.979741   0.000000
   17       22.091719   0.000000
   18       23.948509   0.000000
   19       25.330085   0.000000
   20       25.635711   0.000000
   21       25.755995   0.000000
   22       26.042527   0.000000
   23       28.718436   0.000000
   24       29.481988   0.000000
   25       29.594960   0.000000
   26       31.506131   0.000000
   27       31.587412   0.000000
   28       31.957263   0.000000
   29       36.533684   0.000000
   30       37.048867   0.000000
 
  0.5000000E+00  0.5000000E+00  0.1259184E-16  0.1388889E-01
    1       -5.221641   1.000000
    2       -5.221640   1.000000
    3        0.600175   1.000000
    4        0.600184   1.000000
    5        4.584355   0.000000
    6        4.584355   0.000000
    7       13.348954   0.000000
    8       13.348957   0.000000
    9       15.442569   0.000000
   10       15.442570   0.000000
   11       16.369850   0.000000
   12       16.369851   0.000000
   13       17.265018   0.000000
   14       17.265018   0.000000
   15       22.723545   0.000000
   16       22.723545   0.000000
   17       22.752852   0.000000
   18       22.752852   0.000000
   19       22.758693   0.000000
   20       22.758695   0.000000
   21       23.378904   0.000000
   22       23.378908   0.000000
   23       30.627111   0.000000
   24       30.627154   0.000000
   25       32.001649   0.000000
   26       32.001709   0.000000
   27       35.452132   0.000000
   28       35.452192   0.000000
   29       36.178462   0.000000
   30       36.178492   0.000000
 
  0.5000000E+00  0.3333333E+00  0.1666667E+00  0.1111111E+00
    1       -6.988529   1.000000
    2       -3.094745   1.000000
    3       -0.029532   1.000000
    4        1.233459   1.000000
    5        6.636312   0.000000
    6        7.046794   0.000000
    7        8.185576   0.000000
    8       10.920684   0.000000
    9       13.038048   0.000000
   10       13.722428   0.000000
   11       16.175015   0.000000
   12       16.840032   0.000000
   13       17.459328   0.000000
   14       19.482565   0.000000
   15       19.908583   0.000000
   16       21.570983   0.000000
   17       23.125515   0.000000
   18       24.897466   0.000000
   19       24.935292   0.000000
   20       25.776538   0.000000
   21       26.750899   0.000000
   22       27.687177   0.000000
   23       28.853228   0.000000
   24       30.405327   0.000000
   25       30.710428   0.000000
   26       32.202191   0.000000
   27       33.275656   0.000000
   28       34.030543   0.000000
   29       34.548239   0.000000
   30       35.612551   0.000000
 
 -0.3333333E+00  0.3333333E+00  0.1666667E+00  0.1111111E+00
    1       -6.121580   1.000000
    2       -4.199842   1.000000
    3       -0.484993   1.000000
    4        0.793113   1.000000
    5        6.876005   0.000000
    6        7.455017   0.000000
    7        9.913398   0.000000
    8        9.932566   0.000000
    9       11.855774   0.000000
   10       15.537105   0.000000
   11       15.592412   0.000000
   12       16.322298   0.000000
   13       19.883370   0.000000
   14       20.410911   0.000000
   15       21.090534   0.000000
   16       21.816188   0.000000
   17       22.154078   0.000000
   18       24.462558   0.000000
   19       24.945823   0.000000
   20       25.462831   0.000000
   21       25.752408   0.000000
   22       27.718991   0.000000
   23       28.068042   0.000000
   24       28.618457   0.000000
   25       29.994692   0.000000
   26       31.468188   0.000000
   27       32.690069   0.000000
   28       33.087988   0.000000
   29       33.285256   0.000000
   30       34.174059   0.000000
 
 -0.3333333E+00  0.5000000E+00  0.1666667E+00  0.5555556E-01
    1       -5.149131   1.000000
    2       -5.149131   1.000000
    3       -0.066779   1.000000
    4       -0.066773   1.000000
    5        6.542829   0.000000
    6        6.542832   0.000000
    7       10.407808   0.000000
    8       10.407814   0.000000
    9       14.786703   0.000000
   10       14.786707   0.000000
   11       16.626056   0.000000
   12       16.626056   0.000000
   13       20.266327   0.000000
   14       20.266332   0.000000
   15       20.811740   0.000000
   16       20.811746   0.000000
   17       21.789395   0.000000
   18       21.789405   0.000000
   19       25.521195   0.000000
   20       25.521202   0.000000
   21       26.597435   0.000000
   22       26.597442   0.000000
   23       27.078251   0.000000
   24       27.078259   0.000000
   25       31.174829   0.000000
   26       31.174830   0.000000
   27       32.807200   0.000000
   28       32.807201   0.000000
   29       35.593564   0.000000
   30       35.593593   0.000000
